version 2
run General-0-20170821-19:34:18-10500
attr D lce
attr F spr
attr R lru
attr a 1
attr configname General
attr datetime 20170821-19:34:18
attr experiment General
attr inifile omnetpp.ini
attr iterationvars "$net=abilene, $rep=0, $a=1, $F=spr, $ttl=1000, $D=lce, $R=lru"
attr iterationvars2 "$net=abilene, $rep=0, $a=1, $F=spr, $ttl=1000, $D=lce, $R=lru, $repetition=0"
attr measurement "$net=abilene, $rep=0, $a=1, $F=spr, $ttl=1000, $D=lce, $R=lru"
attr net abilene
attr network networks.${net=abilene}_network
attr processid 10500
attr rep 0
attr repetition 0
attr replication #0
attr resultdir results
attr runnumber 0
attr seedset 0
attr ttl 1000

vector 22  abilene_network.node[0].content_store  hit_node[0]  ETV
22	8669	1	0.75
22	8669	2	0.5
22	8669	3	nan
22	8669	4	0.5
22	8669	5	0.5
22	8669	6	nan
22	8669	7	nan
22	8669	8	nan
22	8669	9	0.5
22	8669	10	nan
22	8669	11	nan
22	8669	12	nan
22	8669	13	nan
22	8669	14	nan
22	8669	15	nan
22	8669	16	nan
22	8669	17	nan
22	8669	18	nan
22	8669	19	nan
22	8669	20	nan
22	8669	21	nan
22	8669	22	nan
22	8669	23	nan
22	8669	24	nan
22	8669	25	nan
22	8669	26	nan
22	8669	27	nan
22	8669	28	nan
22	8669	29	0
22	8669	30	nan
22	8669	31	nan
22	8669	32	nan
22	8669	33	nan
22	8669	34	0
22	8669	35	nan
22	8669	36	nan
22	8669	37	nan
22	8669	38	nan
22	8669	39	nan
22	8669	40	nan
22	8669	41	nan
22	8669	42	nan
22	8669	43	nan
22	8669	44	nan
22	8669	45	nan
22	8669	46	nan
22	8669	47	nan
22	8669	48	nan
22	8669	49	nan
22	8669	50	nan
22	8669	51	nan
22	8669	52	nan
22	8669	53	nan
22	8669	54	nan
22	8669	55	nan
22	8669	56	nan
22	8669	57	nan
22	8669	58	nan
22	8669	59	nan
22	8669	60	nan
22	8669	61	nan
22	8669	62	nan
22	8669	63	nan
22	8669	64	nan
22	8669	65	0
22	8669	66	nan
22	8669	67	nan
22	8669	68	nan
22	8669	69	nan
22	8669	70	nan
22	8669	71	nan
22	8669	72	nan
22	8669	73	nan
22	8669	74	nan
22	8669	75	nan
22	8669	76	nan
vector 23  abilene_network.node[1].content_store  hit_node[1]  ETV
23	8669	1	0.90909090909091
23	8669	2	0.5
23	8669	3	0.5
23	8669	4	0
23	8669	5	0.66666666666667
23	8669	6	0.75
23	8669	7	0
23	8669	8	0.5
23	8669	9	0.5
23	8669	10	nan
23	8669	11	nan
23	8669	12	nan
23	8669	13	0
23	8669	14	nan
23	8669	15	0
23	8669	16	0
23	8669	17	nan
23	8669	18	nan
23	8669	19	0.5
23	8669	20	nan
23	8669	21	nan
23	8669	22	0.5
23	8669	23	0
23	8669	24	0
23	8669	25	0.5
23	8669	26	nan
23	8669	27	0
23	8669	28	0.5
23	8669	29	0
23	8669	30	0
23	8669	31	nan
23	8669	32	nan
23	8669	33	nan
23	8669	34	0
23	8669	35	nan
23	8669	36	nan
23	8669	37	nan
23	8669	38	nan
23	8669	39	0
23	8669	40	nan
23	8669	41	nan
23	8669	42	nan
23	8669	43	nan
23	8669	44	0
23	8669	45	0
23	8669	46	nan
23	8669	47	nan
23	8669	48	0
23	8669	49	nan
23	8669	50	nan
23	8669	51	nan
23	8669	52	nan
23	8669	53	nan
23	8669	54	nan
23	8669	55	nan
23	8669	56	0
23	8669	57	nan
23	8669	58	nan
23	8669	59	0
23	8669	60	nan
23	8669	61	nan
23	8669	62	nan
23	8669	63	nan
23	8669	64	0
23	8669	65	0
23	8669	66	nan
23	8669	67	nan
23	8669	68	nan
23	8669	69	nan
23	8669	70	nan
23	8669	71	nan
23	8669	72	nan
23	8669	73	nan
23	8669	74	nan
23	8669	75	nan
23	8669	76	0
vector 24  abilene_network.node[2].content_store  hit_node[2]  ETV
24	8669	1	0.85714285714286
24	8669	2	0.83333333333333
24	8669	3	0.66666666666667
24	8669	4	0
24	8669	5	0
24	8669	6	0.75
24	8669	7	0.5
24	8669	8	0.5
24	8669	9	0
24	8669	10	nan
24	8669	11	0
24	8669	12	0
24	8669	13	0.5
24	8669	14	0.5
24	8669	15	0
24	8669	16	0
24	8669	17	nan
24	8669	18	nan
24	8669	19	0
24	8669	20	0
24	8669	21	0
24	8669	22	0.5
24	8669	23	0.5
24	8669	24	0
24	8669	25	0
24	8669	26	0
24	8669	27	0
24	8669	28	0
24	8669	29	0
24	8669	30	0
24	8669	31	0
24	8669	32	nan
24	8669	33	0
24	8669	34	0.5
24	8669	35	nan
24	8669	36	0
24	8669	37	nan
24	8669	38	nan
24	8669	39	0
24	8669	40	nan
24	8669	41	nan
24	8669	42	nan
24	8669	43	nan
24	8669	44	0
24	8669	45	0
24	8669	46	nan
24	8669	47	nan
24	8669	48	0
24	8669	49	nan
24	8669	50	nan
24	8669	51	nan
24	8669	52	nan
24	8669	53	nan
24	8669	54	nan
24	8669	55	nan
24	8669	56	0
24	8669	57	nan
24	8669	58	0
24	8669	59	0
24	8669	60	nan
24	8669	61	0
24	8669	62	nan
24	8669	63	nan
24	8669	64	0.5
24	8669	65	0
24	8669	66	nan
24	8669	67	nan
24	8669	68	0
24	8669	69	nan
24	8669	70	nan
24	8669	71	nan
24	8669	72	nan
24	8669	73	0
24	8669	74	nan
24	8669	75	nan
24	8669	76	0
vector 25  abilene_network.node[3].content_store  hit_node[3]  ETV
25	8669	1	0.66666666666667
25	8669	2	0.75
25	8669	3	0
25	8669	4	0
25	8669	5	0
25	8669	6	0
25	8669	7	0.5
25	8669	8	0
25	8669	9	0
25	8669	10	nan
25	8669	11	0
25	8669	12	0
25	8669	13	0
25	8669	14	0
25	8669	15	0
25	8669	16	0
25	8669	17	0
25	8669	18	0
25	8669	19	0
25	8669	20	0
25	8669	21	0
25	8669	22	0
25	8669	23	0
25	8669	24	0
25	8669	25	0
25	8669	26	0
25	8669	27	0.5
25	8669	28	0
25	8669	29	0
25	8669	30	0.5
25	8669	31	0
25	8669	32	nan
25	8669	33	0
25	8669	34	0
25	8669	35	nan
25	8669	36	0
25	8669	37	nan
25	8669	38	nan
25	8669	39	0
25	8669	40	nan
25	8669	41	nan
25	8669	42	0
25	8669	43	nan
25	8669	44	0
25	8669	45	0
25	8669	46	0
25	8669	47	0
25	8669	48	0
25	8669	49	nan
25	8669	50	0
25	8669	51	nan
25	8669	52	nan
25	8669	53	nan
25	8669	54	nan
25	8669	55	nan
25	8669	56	0
25	8669	57	nan
25	8669	58	0
25	8669	59	0
25	8669	60	nan
25	8669	61	0
25	8669	62	nan
25	8669	63	nan
25	8669	64	0
25	8669	65	0
25	8669	66	nan
25	8669	67	nan
25	8669	68	0.5
25	8669	69	nan
25	8669	70	nan
25	8669	71	nan
25	8669	72	nan
25	8669	73	0
25	8669	74	nan
25	8669	75	nan
25	8669	76	0
vector 26  abilene_network.node[4].content_store  hit_node[4]  ETV
26	8669	1	0.75
26	8669	2	0.75
26	8669	3	0
26	8669	4	0
26	8669	5	0
26	8669	6	0.5
26	8669	7	0.5
26	8669	8	0
26	8669	9	0.5
26	8669	10	nan
26	8669	11	0.5
26	8669	12	0
26	8669	13	0.5
26	8669	14	0.5
26	8669	15	0
26	8669	16	0
26	8669	17	0
26	8669	18	0
26	8669	19	0
26	8669	20	0
26	8669	21	0
26	8669	22	0
26	8669	23	0
26	8669	24	0
26	8669	25	0
26	8669	26	0
26	8669	27	0
26	8669	28	0
26	8669	29	0
26	8669	30	0
26	8669	31	0
26	8669	32	nan
26	8669	33	0
26	8669	34	0
26	8669	35	nan
26	8669	36	0
26	8669	37	nan
26	8669	38	nan
26	8669	39	0
26	8669	40	nan
26	8669	41	nan
26	8669	42	0
26	8669	43	nan
26	8669	44	0
26	8669	45	0
26	8669	46	0
26	8669	47	0
26	8669	48	0.5
26	8669	49	nan
26	8669	50	0
26	8669	51	0
26	8669	52	nan
26	8669	53	nan
26	8669	54	0
26	8669	55	nan
26	8669	56	0
26	8669	57	nan
26	8669	58	0.66666666666667
26	8669	59	0
26	8669	60	nan
26	8669	61	0.5
26	8669	62	nan
26	8669	63	nan
26	8669	64	0.5
26	8669	65	0
26	8669	66	nan
26	8669	67	nan
26	8669	68	0
26	8669	69	nan
26	8669	70	nan
26	8669	71	nan
26	8669	72	nan
26	8669	73	0
26	8669	74	0
26	8669	75	nan
26	8669	76	0
vector 27  abilene_network.node[5].content_store  hit_node[5]  ETV
27	8669	1	0.71428571428571
27	8669	2	0.75
27	8669	3	0.6
27	8669	4	0.66666666666667
27	8669	5	0.66666666666667
27	8669	6	0.5
27	8669	7	0.5
27	8669	8	0.5
27	8669	9	0.33333333333333
27	8669	10	0
27	8669	11	0.5
27	8669	12	0.5
27	8669	13	0
27	8669	14	0.5
27	8669	15	0
27	8669	16	0
27	8669	17	0
27	8669	18	0
27	8669	19	0.5
27	8669	20	0
27	8669	21	0.66666666666667
27	8669	22	0
27	8669	23	0
27	8669	24	0
27	8669	25	0
27	8669	26	0
27	8669	27	0
27	8669	28	0.5
27	8669	29	0.5
27	8669	30	0
27	8669	31	0.5
27	8669	32	0
27	8669	33	0.5
27	8669	34	0
27	8669	35	0
27	8669	36	0.5
27	8669	37	0
27	8669	38	nan
27	8669	39	0
27	8669	40	0
27	8669	41	nan
27	8669	42	0
27	8669	43	nan
27	8669	44	0
27	8669	45	0.33333333333333
27	8669	46	0.5
27	8669	47	0
27	8669	48	0
27	8669	49	0
27	8669	50	0
27	8669	51	0
27	8669	52	0
27	8669	53	nan
27	8669	54	0
27	8669	55	nan
27	8669	56	0
27	8669	57	0
27	8669	58	0
27	8669	59	0
27	8669	60	nan
27	8669	61	0
27	8669	62	nan
27	8669	63	0
27	8669	64	0
27	8669	65	0.5
27	8669	66	0
27	8669	67	nan
27	8669	68	0
27	8669	69	nan
27	8669	70	nan
27	8669	71	nan
27	8669	72	nan
27	8669	73	0.33333333333333
27	8669	74	0
27	8669	75	nan
27	8669	76	0
vector 28  abilene_network.node[6].content_store  hit_node[6]  ETV
28	8669	1	0.875
28	8669	2	0
28	8669	3	0
28	8669	4	0.5
28	8669	5	0
28	8669	6	0
28	8669	7	0.5
28	8669	8	0
28	8669	9	0.5
28	8669	10	0.66666666666667
28	8669	11	0
28	8669	12	0
28	8669	13	0
28	8669	14	0
28	8669	15	0.5
28	8669	16	nan
28	8669	17	nan
28	8669	18	nan
28	8669	19	0
28	8669	20	nan
28	8669	21	0.5
28	8669	22	nan
28	8669	23	nan
28	8669	24	nan
28	8669	25	nan
28	8669	26	nan
28	8669	27	nan
28	8669	28	0
28	8669	29	nan
28	8669	30	0
28	8669	31	0
28	8669	32	nan
28	8669	33	0
28	8669	34	nan
28	8669	35	0
28	8669	36	0
28	8669	37	nan
28	8669	38	nan
28	8669	39	0
28	8669	40	0
28	8669	41	nan
28	8669	42	0
28	8669	43	nan
28	8669	44	nan
28	8669	45	0.5
28	8669	46	0
28	8669	47	nan
28	8669	48	nan
28	8669	49	nan
28	8669	50	nan
28	8669	51	nan
28	8669	52	0
28	8669	53	nan
28	8669	54	nan
28	8669	55	nan
28	8669	56	nan
28	8669	57	0
28	8669	58	nan
28	8669	59	0
28	8669	60	nan
28	8669	61	nan
28	8669	62	nan
28	8669	63	0
28	8669	64	nan
28	8669	65	0
28	8669	66	0
28	8669	67	nan
28	8669	68	nan
28	8669	69	nan
28	8669	70	nan
28	8669	71	nan
28	8669	72	nan
28	8669	73	nan
28	8669	74	nan
28	8669	75	nan
28	8669	76	nan
vector 29  abilene_network.node[7].content_store  hit_node[7]  ETV
29	8669	1	0.8
29	8669	2	0.5
29	8669	3	0.5
29	8669	4	0
29	8669	5	0.5
29	8669	6	0.5
29	8669	7	0.5
29	8669	8	0
29	8669	9	0
29	8669	10	0
29	8669	11	0.66666666666667
29	8669	12	0.66666666666667
29	8669	13	nan
29	8669	14	0.5
29	8669	15	0
29	8669	16	nan
29	8669	17	nan
29	8669	18	nan
29	8669	19	0
29	8669	20	nan
29	8669	21	nan
29	8669	22	nan
29	8669	23	nan
29	8669	24	nan
29	8669	25	nan
29	8669	26	nan
29	8669	27	nan
29	8669	28	0
29	8669	29	nan
29	8669	30	nan
29	8669	31	0
29	8669	32	nan
29	8669	33	0
29	8669	34	nan
29	8669	35	nan
29	8669	36	0
29	8669	37	nan
29	8669	38	nan
29	8669	39	0
29	8669	40	0
29	8669	41	nan
29	8669	42	0
29	8669	43	nan
29	8669	44	nan
29	8669	45	0
29	8669	46	0
29	8669	47	nan
29	8669	48	nan
29	8669	49	nan
29	8669	50	nan
29	8669	51	nan
29	8669	52	nan
29	8669	53	nan
29	8669	54	nan
29	8669	55	nan
29	8669	56	nan
29	8669	57	nan
29	8669	58	nan
29	8669	59	0
29	8669	60	nan
29	8669	61	nan
29	8669	62	nan
29	8669	63	0
29	8669	64	nan
29	8669	65	0
29	8669	66	nan
29	8669	67	nan
29	8669	68	nan
29	8669	69	nan
29	8669	70	nan
29	8669	71	nan
29	8669	72	nan
29	8669	73	nan
29	8669	74	nan
29	8669	75	nan
29	8669	76	nan
vector 30  abilene_network.node[8].content_store  hit_node[8]  ETV
30	8669	1	0.83333333333333
30	8669	2	0.75
30	8669	3	0.75
30	8669	4	0
30	8669	5	0
30	8669	6	0.5
30	8669	7	0.66666666666667
30	8669	8	nan
30	8669	9	0
30	8669	10	0.5
30	8669	11	0
30	8669	12	0
30	8669	13	nan
30	8669	14	0
30	8669	15	0
30	8669	16	nan
30	8669	17	nan
30	8669	18	nan
30	8669	19	0
30	8669	20	nan
30	8669	21	nan
30	8669	22	nan
30	8669	23	nan
30	8669	24	nan
30	8669	25	nan
30	8669	26	nan
30	8669	27	nan
30	8669	28	0
30	8669	29	nan
30	8669	30	nan
30	8669	31	0
30	8669	32	nan
30	8669	33	nan
30	8669	34	nan
30	8669	35	nan
30	8669	36	0
30	8669	37	nan
30	8669	38	nan
30	8669	39	nan
30	8669	40	nan
30	8669	41	nan
30	8669	42	0
30	8669	43	nan
30	8669	44	nan
30	8669	45	0
30	8669	46	0
30	8669	47	nan
30	8669	48	nan
30	8669	49	nan
30	8669	50	nan
30	8669	51	nan
30	8669	52	nan
30	8669	53	nan
30	8669	54	nan
30	8669	55	nan
30	8669	56	nan
30	8669	57	nan
30	8669	58	nan
30	8669	59	nan
30	8669	60	nan
30	8669	61	nan
30	8669	62	nan
30	8669	63	0
30	8669	64	nan
30	8669	65	nan
30	8669	66	nan
30	8669	67	nan
30	8669	68	nan
30	8669	69	nan
30	8669	70	nan
30	8669	71	nan
30	8669	72	nan
30	8669	73	nan
30	8669	74	nan
30	8669	75	nan
30	8669	76	nan
vector 31  abilene_network.node[9].content_store  hit_node[9]  ETV
31	8669	1	0.5
31	8669	2	0
31	8669	3	0.66666666666667
31	8669	4	0.5
31	8669	5	nan
31	8669	6	0
31	8669	7	0
31	8669	8	nan
31	8669	9	nan
31	8669	10	0
31	8669	11	0
31	8669	12	nan
31	8669	13	nan
31	8669	14	0
31	8669	15	nan
31	8669	16	nan
31	8669	17	nan
31	8669	18	nan
31	8669	19	0
31	8669	20	nan
31	8669	21	nan
31	8669	22	nan
31	8669	23	nan
31	8669	24	nan
31	8669	25	nan
31	8669	26	nan
31	8669	27	nan
31	8669	28	0
31	8669	29	nan
31	8669	30	nan
31	8669	31	0
31	8669	32	nan
31	8669	33	nan
31	8669	34	nan
31	8669	35	nan
31	8669	36	nan
31	8669	37	nan
31	8669	38	nan
31	8669	39	nan
31	8669	40	nan
31	8669	41	nan
31	8669	42	nan
31	8669	43	nan
31	8669	44	nan
31	8669	45	nan
31	8669	46	0
31	8669	47	nan
31	8669	48	nan
31	8669	49	nan
31	8669	50	nan
31	8669	51	nan
31	8669	52	nan
31	8669	53	nan
31	8669	54	nan
31	8669	55	nan
31	8669	56	nan
31	8669	57	nan
31	8669	58	nan
31	8669	59	nan
31	8669	60	nan
31	8669	61	nan
31	8669	62	nan
31	8669	63	nan
31	8669	64	nan
31	8669	65	nan
31	8669	66	nan
31	8669	67	nan
31	8669	68	nan
31	8669	69	nan
31	8669	70	nan
31	8669	71	nan
31	8669	72	nan
31	8669	73	nan
31	8669	74	nan
31	8669	75	nan
31	8669	76	nan
vector 32  abilene_network.node[10].content_store  hit_node[10]  ETV
32	8669	1	0.75
32	8669	2	0
32	8669	3	0.66666666666667
32	8669	4	nan
32	8669	5	nan
32	8669	6	0
32	8669	7	0
32	8669	8	0
32	8669	9	nan
32	8669	10	nan
32	8669	11	nan
32	8669	12	nan
32	8669	13	0
32	8669	14	nan
32	8669	15	0
32	8669	16	0
32	8669	17	nan
32	8669	18	nan
32	8669	19	nan
32	8669	20	nan
32	8669	21	nan
32	8669	22	0
32	8669	23	0
32	8669	24	0
32	8669	25	0
32	8669	26	nan
32	8669	27	nan
32	8669	28	0
32	8669	29	nan
32	8669	30	nan
32	8669	31	nan
32	8669	32	nan
32	8669	33	nan
32	8669	34	nan
32	8669	35	nan
32	8669	36	nan
32	8669	37	nan
32	8669	38	nan
32	8669	39	nan
32	8669	40	nan
32	8669	41	nan
32	8669	42	nan
32	8669	43	nan
32	8669	44	nan
32	8669	45	nan
32	8669	46	nan
32	8669	47	nan
32	8669	48	0
32	8669	49	nan
32	8669	50	nan
32	8669	51	nan
32	8669	52	nan
32	8669	53	nan
32	8669	54	nan
32	8669	55	nan
32	8669	56	nan
32	8669	57	nan
32	8669	58	nan
32	8669	59	nan
32	8669	60	nan
32	8669	61	nan
32	8669	62	nan
32	8669	63	nan
32	8669	64	nan
32	8669	65	nan
32	8669	66	nan
32	8669	67	nan
32	8669	68	nan
32	8669	69	nan
32	8669	70	nan
32	8669	71	nan
32	8669	72	nan
32	8669	73	nan
32	8669	74	nan
32	8669	75	nan
32	8669	76	0
vector 33  abilene_network.client[0]  hdistance[0]  ETV
33	8669	1	3.1442307692308
33	8669	2	2.0862068965517
33	8669	3	0
33	8669	4	2.0384615384615
33	8669	5	2
33	8669	6	0
33	8669	7	0
33	8669	8	0
33	8669	9	2.1458333333333
33	8669	10	0
33	8669	11	0
33	8669	12	0
33	8669	13	0
33	8669	14	0
33	8669	15	0
33	8669	16	0
33	8669	17	0
33	8669	18	0
33	8669	19	0
33	8669	20	0
33	8669	21	0
33	8669	22	0
33	8669	23	0
33	8669	24	0
33	8669	25	0
33	8669	26	0
33	8669	27	0
33	8669	28	0
33	8669	29	6
33	8669	30	0
33	8669	31	0
33	8669	32	0
33	8669	33	0
33	8669	34	6
33	8669	35	0
33	8669	36	0
33	8669	37	0
33	8669	38	0
33	8669	39	0
33	8669	40	0
33	8669	41	0
33	8669	42	0
33	8669	43	0
33	8669	44	0
33	8669	45	0
33	8669	46	0
33	8669	47	0
33	8669	48	0
33	8669	49	0
33	8669	50	0
33	8669	51	0
33	8669	52	0
33	8669	53	0
33	8669	54	0
33	8669	55	0
33	8669	56	0
33	8669	57	0
33	8669	58	0
33	8669	59	0
33	8669	60	0
33	8669	61	0
33	8669	62	0
33	8669	63	0
33	8669	64	0
33	8669	65	6
33	8669	66	0
33	8669	67	0
33	8669	68	0
33	8669	69	0
33	8669	70	0
33	8669	71	0
33	8669	72	0
33	8669	73	0
33	8669	74	0
33	8669	75	0
33	8669	76	0
vector 34  abilene_network.client[1]  hdistance[1]  ETV
34	8669	1	2.9106753812636
34	8669	2	0
34	8669	3	5
34	8669	4	0
34	8669	5	1.875
34	8669	6	2.390243902439
34	8669	7	0
34	8669	8	0
34	8669	9	0
34	8669	10	0
34	8669	11	0
34	8669	12	0
34	8669	13	0
34	8669	14	0
34	8669	15	0
34	8669	16	0
34	8669	17	0
34	8669	18	0
34	8669	19	1.6354166666667
34	8669	20	0
34	8669	21	0
34	8669	22	5
34	8669	23	0
34	8669	24	0
34	8669	25	0
34	8669	26	0
34	8669	27	2
34	8669	28	0
34	8669	29	0
34	8669	30	5
34	8669	31	0
34	8669	32	0
34	8669	33	0
34	8669	34	0
34	8669	35	0
34	8669	36	0
34	8669	37	0
34	8669	38	0
34	8669	39	5
34	8669	40	0
34	8669	41	0
34	8669	42	0
34	8669	43	0
34	8669	44	5
34	8669	45	5
34	8669	46	0
34	8669	47	0
34	8669	48	0
34	8669	49	0
34	8669	50	0
34	8669	51	0
34	8669	52	0
34	8669	53	0
34	8669	54	0
34	8669	55	0
34	8669	56	5
34	8669	57	0
34	8669	58	0
34	8669	59	5
34	8669	60	0
34	8669	61	0
34	8669	62	0
34	8669	63	0
34	8669	64	1
34	8669	65	0
34	8669	66	0
34	8669	67	0
34	8669	68	0
34	8669	69	0
34	8669	70	0
34	8669	71	0
34	8669	72	0
34	8669	73	0
34	8669	74	0
34	8669	75	0
34	8669	76	0
vector 35  abilene_network.client[2]  hdistance[2]  ETV
35	8669	1	2.3302469135802
35	8669	2	2.0327868852459
35	8669	3	1.359649122807
35	8669	4	0
35	8669	5	0
35	8669	6	1.7222222222222
35	8669	7	3
35	8669	8	4
35	8669	9	0
35	8669	10	0
35	8669	11	2
35	8669	12	3
35	8669	13	2
35	8669	14	1.3135593220339
35	8669	15	0
35	8669	16	0
35	8669	17	0
35	8669	18	0
35	8669	19	0
35	8669	20	4
35	8669	21	4
35	8669	22	0
35	8669	23	0
35	8669	24	0
35	8669	25	0
35	8669	26	4
35	8669	27	0
35	8669	28	0
35	8669	29	0
35	8669	30	0
35	8669	31	3
35	8669	32	0
35	8669	33	4
35	8669	34	0
35	8669	35	0
35	8669	36	3
35	8669	37	0
35	8669	38	0
35	8669	39	0
35	8669	40	0
35	8669	41	0
35	8669	42	0
35	8669	43	0
35	8669	44	0
35	8669	45	0
35	8669	46	0
35	8669	47	0
35	8669	48	0
35	8669	49	0
35	8669	50	0
35	8669	51	0
35	8669	52	0
35	8669	53	0
35	8669	54	0
35	8669	55	0
35	8669	56	0
35	8669	57	0
35	8669	58	2
35	8669	59	0
35	8669	60	0
35	8669	61	4
35	8669	62	0
35	8669	63	0
35	8669	64	4
35	8669	65	0
35	8669	66	0
35	8669	67	0
35	8669	68	4
35	8669	69	0
35	8669	70	0
35	8669	71	0
35	8669	72	0
35	8669	73	4
35	8669	74	0
35	8669	75	0
35	8669	76	0
vector 36  abilene_network.client[3]  hdistance[3]  ETV
36	8669	1	1.1590909090909
36	8669	2	1.4814814814815
36	8669	3	0
36	8669	4	0
36	8669	5	0
36	8669	6	0
36	8669	7	0
36	8669	8	0
36	8669	9	0
36	8669	10	0
36	8669	11	0
36	8669	12	0
36	8669	13	0
36	8669	14	0
36	8669	15	0
36	8669	16	0
36	8669	17	3
36	8669	18	3
36	8669	19	0
36	8669	20	0
36	8669	21	2
36	8669	22	0
36	8669	23	0
36	8669	24	0
36	8669	25	0
36	8669	26	3
36	8669	27	3
36	8669	28	0
36	8669	29	0
36	8669	30	0
36	8669	31	0
36	8669	32	0
36	8669	33	0
36	8669	34	0
36	8669	35	0
36	8669	36	0
36	8669	37	0
36	8669	38	0
36	8669	39	0
36	8669	40	0
36	8669	41	0
36	8669	42	3
36	8669	43	0
36	8669	44	0
36	8669	45	3
36	8669	46	3
36	8669	47	3
36	8669	48	0
36	8669	49	0
36	8669	50	3
36	8669	51	0
36	8669	52	0
36	8669	53	0
36	8669	54	0
36	8669	55	0
36	8669	56	0
36	8669	57	0
36	8669	58	0
36	8669	59	0
36	8669	60	0
36	8669	61	0
36	8669	62	0
36	8669	63	0
36	8669	64	0
36	8669	65	0
36	8669	66	0
36	8669	67	0
36	8669	68	0
36	8669	69	0
36	8669	70	0
36	8669	71	0
36	8669	72	0
36	8669	73	0
36	8669	74	0
36	8669	75	0
36	8669	76	0
vector 37  abilene_network.client[4]  hdistance[4]  ETV
37	8669	1	0.90909090909091
37	8669	2	0.82456140350877
37	8669	3	1
37	8669	4	0
37	8669	5	0
37	8669	6	0
37	8669	7	0
37	8669	8	0
37	8669	9	0
37	8669	10	0
37	8669	11	2
37	8669	12	0
37	8669	13	1.5407407407407
37	8669	14	0
37	8669	15	2
37	8669	16	0
37	8669	17	0
37	8669	18	0
37	8669	19	2
37	8669	20	0
37	8669	21	0
37	8669	22	0
37	8669	23	0
37	8669	24	0
37	8669	25	0
37	8669	26	0
37	8669	27	0
37	8669	28	0
37	8669	29	0
37	8669	30	0
37	8669	31	0
37	8669	32	0
37	8669	33	0
37	8669	34	0
37	8669	35	0
37	8669	36	0
37	8669	37	0
37	8669	38	0
37	8669	39	0
37	8669	40	0
37	8669	41	0
37	8669	42	0
37	8669	43	0
37	8669	44	0
37	8669	45	0
37	8669	46	0
37	8669	47	0
37	8669	48	2
37	8669	49	0
37	8669	50	0
37	8669	51	2
37	8669	52	0
37	8669	53	0
37	8669	54	2
37	8669	55	0
37	8669	56	0
37	8669	57	0
37	8669	58	0.65277777777778
37	8669	59	0
37	8669	60	0
37	8669	61	0
37	8669	62	0
37	8669	63	0
37	8669	64	0
37	8669	65	0
37	8669	66	0
37	8669	67	0
37	8669	68	0
37	8669	69	0
37	8669	70	0
37	8669	71	0
37	8669	72	0
37	8669	73	2
37	8669	74	2
37	8669	75	0
37	8669	76	0
vector 38  abilene_network.client[5]  hdistance[5]  ETV
38	8669	1	0.57142857142857
38	8669	2	0.34
38	8669	3	0.86666666666667
38	8669	4	1
38	8669	5	1
38	8669	6	0
38	8669	7	0
38	8669	8	0
38	8669	9	1
38	8669	10	0
38	8669	11	0
38	8669	12	0.8625
38	8669	13	0
38	8669	14	0
38	8669	15	0
38	8669	16	1
38	8669	17	0
38	8669	18	0
38	8669	19	1
38	8669	20	1
38	8669	21	0
38	8669	22	1
38	8669	23	0
38	8669	24	1
38	8669	25	0
38	8669	26	0
38	8669	27	0
38	8669	28	0
38	8669	29	0
38	8669	30	0
38	8669	31	0
38	8669	32	1
38	8669	33	0
38	8669	34	0
38	8669	35	0
38	8669	36	0
38	8669	37	1
38	8669	38	0
38	8669	39	0
38	8669	40	0
38	8669	41	0
38	8669	42	0
38	8669	43	0
38	8669	44	0
38	8669	45	0
38	8669	46	0
38	8669	47	0
38	8669	48	0
38	8669	49	1
38	8669	50	0
38	8669	51	0
38	8669	52	0
38	8669	53	0
38	8669	54	0
38	8669	55	0
38	8669	56	0
38	8669	57	0
38	8669	58	0
38	8669	59	0
38	8669	60	0
38	8669	61	0
38	8669	62	0
38	8669	63	0
38	8669	64	0
38	8669	65	0
38	8669	66	0
38	8669	67	0
38	8669	68	0
38	8669	69	0
38	8669	70	0
38	8669	71	0
38	8669	72	0
38	8669	73	0
38	8669	74	0
38	8669	75	0
38	8669	76	0
vector 39  abilene_network.client[6]  hdistance[6]  ETV
39	8669	1	1.2857142857143
39	8669	2	0
39	8669	3	0
39	8669	4	1
39	8669	5	0
39	8669	6	0
39	8669	7	2
39	8669	8	0
39	8669	9	1
39	8669	10	0.80769230769231
39	8669	11	0
39	8669	12	0
39	8669	13	2
39	8669	14	0
39	8669	15	2
39	8669	16	0
39	8669	17	0
39	8669	18	0
39	8669	19	0
39	8669	20	0
39	8669	21	0.76315789473684
39	8669	22	0
39	8669	23	0
39	8669	24	0
39	8669	25	0
39	8669	26	0
39	8669	27	0
39	8669	28	0
39	8669	29	0
39	8669	30	2
39	8669	31	0
39	8669	32	0
39	8669	33	0
39	8669	34	0
39	8669	35	2
39	8669	36	0
39	8669	37	0
39	8669	38	0
39	8669	39	0
39	8669	40	0
39	8669	41	0
39	8669	42	0
39	8669	43	0
39	8669	44	0
39	8669	45	1
39	8669	46	0
39	8669	47	0
39	8669	48	0
39	8669	49	0
39	8669	50	0
39	8669	51	0
39	8669	52	2
39	8669	53	0
39	8669	54	0
39	8669	55	0
39	8669	56	0
39	8669	57	2
39	8669	58	0
39	8669	59	0
39	8669	60	0
39	8669	61	0
39	8669	62	0
39	8669	63	0
39	8669	64	0
39	8669	65	0
39	8669	66	2
39	8669	67	0
39	8669	68	0
39	8669	69	0
39	8669	70	0
39	8669	71	0
39	8669	72	0
39	8669	73	0
39	8669	74	0
39	8669	75	0
39	8669	76	0
vector 40  abilene_network.client[7]  hdistance[7]  ETV
40	8669	1	1.5
40	8669	2	3
40	8669	3	0
40	8669	4	0
40	8669	5	0
40	8669	6	0
40	8669	7	1
40	8669	8	2
40	8669	9	0
40	8669	10	0
40	8669	11	1.1538461538462
40	8669	12	0.98148148148148
40	8669	13	0
40	8669	14	3
40	8669	15	0
40	8669	16	0
40	8669	17	0
40	8669	18	0
40	8669	19	0
40	8669	20	0
40	8669	21	0
40	8669	22	0
40	8669	23	0
40	8669	24	0
40	8669	25	0
40	8669	26	0
40	8669	27	0
40	8669	28	0
40	8669	29	0
40	8669	30	0
40	8669	31	0
40	8669	32	0
40	8669	33	2
40	8669	34	0
40	8669	35	0
40	8669	36	0
40	8669	37	0
40	8669	38	0
40	8669	39	3
40	8669	40	3
40	8669	41	0
40	8669	42	0
40	8669	43	0
40	8669	44	0
40	8669	45	0
40	8669	46	0
40	8669	47	0
40	8669	48	0
40	8669	49	0
40	8669	50	0
40	8669	51	0
40	8669	52	0
40	8669	53	0
40	8669	54	0
40	8669	55	0
40	8669	56	0
40	8669	57	0
40	8669	58	0
40	8669	59	3
40	8669	60	0
40	8669	61	0
40	8669	62	0
40	8669	63	0
40	8669	64	0
40	8669	65	2
40	8669	66	0
40	8669	67	0
40	8669	68	0
40	8669	69	0
40	8669	70	0
40	8669	71	0
40	8669	72	0
40	8669	73	0
40	8669	74	0
40	8669	75	0
40	8669	76	0
vector 41  abilene_network.client[8]  hdistance[8]  ETV
41	8669	1	2.0285714285714
41	8669	2	1.6274509803922
41	8669	3	1.5675675675676
41	8669	4	0
41	8669	5	3
41	8669	6	0
41	8669	7	1.2368421052632
41	8669	8	0
41	8669	9	2
41	8669	10	2
41	8669	11	0
41	8669	12	3
41	8669	13	0
41	8669	14	0
41	8669	15	2
41	8669	16	0
41	8669	17	0
41	8669	18	0
41	8669	19	0
41	8669	20	0
41	8669	21	0
41	8669	22	0
41	8669	23	0
41	8669	24	0
41	8669	25	0
41	8669	26	0
41	8669	27	0
41	8669	28	0
41	8669	29	0
41	8669	30	0
41	8669	31	0
41	8669	32	0
41	8669	33	0
41	8669	34	0
41	8669	35	0
41	8669	36	4
41	8669	37	0
41	8669	38	0
41	8669	39	0
41	8669	40	0
41	8669	41	0
41	8669	42	4
41	8669	43	0
41	8669	44	0
41	8669	45	2
41	8669	46	0
41	8669	47	0
41	8669	48	0
41	8669	49	0
41	8669	50	0
41	8669	51	0
41	8669	52	0
41	8669	53	0
41	8669	54	0
41	8669	55	0
41	8669	56	0
41	8669	57	0
41	8669	58	0
41	8669	59	0
41	8669	60	0
41	8669	61	0
41	8669	62	0
41	8669	63	4
41	8669	64	0
41	8669	65	0
41	8669	66	0
41	8669	67	0
41	8669	68	0
41	8669	69	0
41	8669	70	0
41	8669	71	0
41	8669	72	0
41	8669	73	0
41	8669	74	0
41	8669	75	0
41	8669	76	0
vector 42  abilene_network.client[9]  hdistance[9]  ETV
42	8669	1	1.9615384615385
42	8669	2	1
42	8669	3	2.3870967741935
42	8669	4	1.8275862068966
42	8669	5	0
42	8669	6	5
42	8669	7	1
42	8669	8	0
42	8669	9	0
42	8669	10	1
42	8669	11	2
42	8669	12	0
42	8669	13	0
42	8669	14	2
42	8669	15	0
42	8669	16	0
42	8669	17	0
42	8669	18	0
42	8669	19	4
42	8669	20	0
42	8669	21	0
42	8669	22	0
42	8669	23	0
42	8669	24	0
42	8669	25	0
42	8669	26	0
42	8669	27	0
42	8669	28	4
42	8669	29	0
42	8669	30	0
42	8669	31	5
42	8669	32	0
42	8669	33	0
42	8669	34	0
42	8669	35	0
42	8669	36	0
42	8669	37	0
42	8669	38	0
42	8669	39	0
42	8669	40	0
42	8669	41	0
42	8669	42	0
42	8669	43	0
42	8669	44	0
42	8669	45	0
42	8669	46	4
42	8669	47	0
42	8669	48	0
42	8669	49	0
42	8669	50	0
42	8669	51	0
42	8669	52	0
42	8669	53	0
42	8669	54	0
42	8669	55	0
42	8669	56	0
42	8669	57	0
42	8669	58	0
42	8669	59	0
42	8669	60	0
42	8669	61	0
42	8669	62	0
42	8669	63	0
42	8669	64	0
42	8669	65	0
42	8669	66	0
42	8669	67	0
42	8669	68	0
42	8669	69	0
42	8669	70	0
42	8669	71	0
42	8669	72	0
42	8669	73	0
42	8669	74	0
42	8669	75	0
42	8669	76	0
vector 43  abilene_network.client[10]  hdistance[10]  ETV
43	8669	1	3.4071428571429
43	8669	2	1
43	8669	3	3.0566037735849
43	8669	4	0
43	8669	5	0
43	8669	6	1
43	8669	7	2
43	8669	8	2
43	8669	9	0
43	8669	10	0
43	8669	11	0
43	8669	12	0
43	8669	13	2
43	8669	14	0
43	8669	15	6
43	8669	16	6
43	8669	17	0
43	8669	18	0
43	8669	19	0
43	8669	20	0
43	8669	21	0
43	8669	22	1
43	8669	23	6
43	8669	24	6
43	8669	25	6
43	8669	26	0
43	8669	27	0
43	8669	28	6
43	8669	29	0
43	8669	30	0
43	8669	31	0
43	8669	32	0
43	8669	33	0
43	8669	34	0
43	8669	35	0
43	8669	36	0
43	8669	37	0
43	8669	38	0
43	8669	39	0
43	8669	40	0
43	8669	41	0
43	8669	42	0
43	8669	43	0
43	8669	44	0
43	8669	45	0
43	8669	46	0
43	8669	47	0
43	8669	48	4
43	8669	49	0
43	8669	50	0
43	8669	51	0
43	8669	52	0
43	8669	53	0
43	8669	54	0
43	8669	55	0
43	8669	56	0
43	8669	57	0
43	8669	58	0
43	8669	59	0
43	8669	60	0
43	8669	61	0
43	8669	62	0
43	8669	63	0
43	8669	64	0
43	8669	65	0
43	8669	66	0
43	8669	67	0
43	8669	68	0
43	8669	69	0
43	8669	70	0
43	8669	71	0
43	8669	72	0
43	8669	73	0
43	8669	74	0
43	8669	75	0
43	8669	76	6
